1     2      3  4   5   6   6,5    7    8    9     10   11
+ 0.010168 107 118 cbr 210 ------- 17 109.0 118.0  0 17
- 0.010168 107 118 cbr 210 ------- 17 109.0 118.0  0 17
r 0.010168 130 128 cbr 210 ------- 18 130.0 139.0  0 18
+ 0.010168 128 139 cbr 210 ------- 18 130.0 139.0  0 18
- 0.010168 128 139 cbr 210 ------- 18 130.0 139.0  0 18
r 0.010168 151 149 cbr 210 ------- 19 151.0 139.0  0 19
+ 0.010168 149 1 cbr 210 ------- 19 151.0 139.0    0  19
r 0.010168 172 170 cbr 210 ------- 20 172.0 139.0  0 20
+ 0.010168 170 1 cbr 210 ------- 20 172.0 139.0    0  20
r 0.010168 193 191 cbr 210 ------- 21 193.0 160.0  0 21
+ 0.010168 191 1 cbr 210 ------- 21 193.0 160.0    0  21
r 0.010168 214 212 cbr 210 ------- 22 214.0 160.0  0 22
+ 0.010168 212 1 cbr 210 ------- 22 214.0 160.0    0  22

1. evento
2. tempo
3. noh from
4. noh to
5. tipo de pacote
6. tamanho
6,5. flags (tracinhos)
7. id da conexao
8. pacote source . porta sendo usada
9. destino . porta sendo usada
10. seq do pacote (identificador)
11. id do pacote.
